Compound,CAS,Formula,Gross Heating Value Ideal Gas [Btu/ft^3],Molar Mass [g/mol],Gross Heating Value Ideal Gas [Btu/lbm],Ideal Gas Relative Density @60F:1atm,Liq. Relative Density @60F:1atm,API Gravity @60F:1atm,Boiling T. [F],Is BTEX,Is Aromatic,Is Naphthenic,Is Hydrocarbon,Is Hydroxyl,Is Paraffinic,Others
butylbenzene,104-51-8,C10H14,6653.5,134.2182,18812.0,4.6342,0.86459,32.161,361.9,True,True,False,True,False,False,False
1-methyl-4-propylbenzene,1074-55-1,C10H14,6699.9,134.2182,18943.0,4.6342,0.86279,32.503,362.02,True,True,False,True,False,False,False
"1,2-diethylbenzene",135-01-3,C10H14,6701.3,134.2182,18947.0,4.6342,0.88436,28.503,362.16,True,True,False,True,False,False,False
"1,4-diethylbenzene",105-05-5,C10H14,6701.3,134.2182,18947.0,4.6342,0.86628,31.842,362.73,True,True,False,True,False,False,False
1-methyl-2-propylbenzene,1074-17-5,C10H14,6699.9,134.2182,18943.0,4.6342,0.8783,29.607,364.24,True,True,False,True,False,False,False
"1,4-dimethyl-2-ethylbenzene",1758-88-9,C10H14,6628.8,134.2182,18742.0,4.6342,0.88175,28.976,367.26,True,True,False,True,False,False,False
"1,2-dimethyl-4-ethylbenzene",934-80-5,C10H14,6627.4,134.2182,18738.0,4.6342,0.8785,29.57,372.77,True,True,False,True,False,False,False
"1,3-dimethyl-2-ethylbenzene",2870-04-4,C10H14,6634.1,134.2182,18757.0,4.6342,0.89483,26.631,374.1,True,True,False,True,False,False,False
"1,2-dimethyl-3-ethylbenzene",933-98-2,C10H14,6633.7,134.2182,18756.0,4.6342,0.89635,26.362,380.95,True,True,False,True,False,False,False
"1,2,4,5-tetramethylbenzene",95-93-2,C10H14,6587.1,134.2182,18624.0,4.6342,0.89076,27.353,386.8,True,True,False,True,False,False,False
"1,2,3,5-tetramethylbenzene",527-53-7,C10H14,6614.9,134.2182,18703.0,4.6342,0.89453,26.684,388.71,True,True,False,True,False,False,False
"1,2,3,4-tetramethylbenzene",488-23-3,C10H14,6622.0,134.2182,18723.0,4.6342,0.90916,24.138,400.72,True,True,False,True,False,False,False
tert-butylcyclohexane,3178-22-1,C10H20,7424.9,140.2658,20088.0,4.843,0.81678,41.741,340.82,False,False,True,True,False,False,False
butylcyclohexane,1678-93-9,C10H20,7398.3,140.2658,20016.0,4.843,0.80333,44.642,357.71,False,False,True,True,False,False,False
cyclodecane,293-96-9,C10H20,7462.6,140.2658,20190.0,4.843,0.86315,32.434,396.17,False,False,True,True,False,False,False
isobutylcyclohexane,1678-98-4,C10H20,7443.6,140.2658,20138.0,4.843,0.79958,45.468,,False,False,True,True,False,False,False
"2,2-dimethyloctane",15869-87-1,C10H22,7716.6,142.2817,20581.0,4.9126,0.72883,62.647,309.82,False,False,False,True,False,True,False
"3,6-dimethyloctane",15869-94-0,C10H22,7728.4,142.2817,20612.0,4.9126,0.73971,59.791,312.52,False,False,False,True,False,True,False
"3,3-dimethyloctane",4110-44-5,C10H22,7722.4,142.2817,20596.0,4.9126,0.74287,58.977,320.77,False,False,False,True,False,True,False
"2,3-dimethyloctane",7146-60-3,C10H22,7728.4,142.2817,20612.0,4.9126,0.74217,59.157,327.64,False,False,False,True,False,True,False
5-methylnonane,15869-85-9,C10H22,7671.4,142.2817,20461.0,4.9126,0.73615,60.716,327.78,False,False,False,True,False,True,False
3-ethyloctane,5881-17-4,C10H22,7735.3,142.2817,20631.0,4.9126,0.7621,54.171,329.46,False,False,False,True,False,True,False
4-methylnonane,17301-94-9,C10H22,7732.4,142.2817,20623.0,4.9126,0.73616,60.714,330.42,False,False,False,True,False,True,False
2-methylnonane,871-83-0,C10H22,7669.2,142.2817,20455.0,4.9126,0.73054,62.192,332.4,False,False,False,True,False,True,False
3-methylnonane,5911-04-6,C10H22,7732.4,142.2817,20623.0,4.9126,0.73718,60.448,333.7,False,False,False,True,False,True,False
(2-methylbutyl)benzene,3968-85-2,C11H16,7455.8,148.2447,19086.0,5.1185,0.86394,32.285,384.5,True,True,False,True,False,False,False
1-tert-butyl-2-methylbenzene,1074-92-6,C11H16,7433.5,148.2447,19029.0,5.1185,0.8939,26.795,392.79,True,True,False,True,False,False,False
pentylbenzene,538-68-1,C11H16,7459.9,148.2447,19096.0,5.1185,0.86352,32.364,397.2,True,True,False,True,False,False,False
n-undecane,1120-21-4,C11H24,8489.4,156.3083,20610.0,5.3969,0.74442,58.581,384.41,False,False,False,True,False,True,False
"1-tert-butyl-3,5-dimethylbenzene",98-19-1,C12H18,8098.2,162.2713,18938.0,5.6028,0.86953,31.232,405.17,True,True,False,True,False,False,False
"1,3,5-triethylbenzene",102-25-0,C12H18,8181.9,162.2713,19134.0,5.6028,0.86651,31.799,420.39,True,True,False,True,False,False,False
"1,2,4-triethylbenzene",877-44-1,C12H18,8181.9,162.2713,19134.0,5.6028,0.88266,28.811,423.35,True,True,False,True,False,False,False
hexylbenzene,1077-16-3,C12H18,8206.2,162.2713,19191.0,5.6028,0.86329,32.408,438.32,True,True,False,True,False,False,False
n-dodecane,112-40-3,C12H26,9236.6,170.3348,20578.0,5.8812,0.75348,56.295,421.32,False,False,False,True,False,True,False
n-tridecane,629-50-5,C13H28,9982.8,184.3614,20548.0,6.3655,0.7603,54.611,455.82,False,False,False,True,False,True,False
n-tetradecane,629-59-4,C14H30,10729.6,198.388,20524.0,6.8498,0.76706,52.971,488.38,False,False,False,True,False,True,False
n-pentadecane,629-62-9,C15H32,11476.2,212.4146,20503.0,7.3341,0.77218,51.747,519.14,False,False,False,True,False,True,False
n-hexadecane,544-76-3,C16H34,12119.9,226.4412,20311.0,7.8184,0.77735,50.529,548.55,False,False,False,True,False,True,False